<?xml version="1.0"?>
<VTKFile type="UnstructuredGrid"  version="0.1"  >
<UnstructuredGrid>
<Piece  NumberOfPoints="4225" NumberOfCells="4096">
<Points>
<DataArray  type="Float64"  NumberOfComponents="3"  format="ascii">0 0 0  0.015625 0 0  0.03125 0 0  0.046875 0 0  0.0625 0 0  0.078125 0 0  0.09375 0 0  0.109375 0 0  0.125 0 0  0.140625 0 0  0.15625 0 0  0.171875 0 0  0.1875 0 0  0.203125 0 0  0.21875 0 0  0.234375 0 0  0.25 0 0  0.265625 0 0  0.28125 0 0  0.296875 0 0  0.3125 0 0  0.328125 0 0  0.34375 0 0  0.359375 0 0  0.375 0 0  0.390625 0 0  0.40625 0 0  0.421875 0 0  0.4375 0 0  0.453125 0 0  0.46875 0 0  0.484375 0 0  0.5 0 0  0.515625 0 0  0.53125 0 0  0.546875 0 0  0.5625 0 0  0.578125 0 0  0.59375 0 0  0.609375 0 0  0.625 0 0  0.640625 0 0  0.65625 0 0  0.671875 0 0  0.6875 0 0  0.703125 0 0  0.71875 0 0  0.734375 0 0  0.75 0 0  0.765625 0 0  0.78125 0 0  0.796875 0 0  0.8125 0 0  0.828125 0 0  0.84375 0 0  0.859375 0 0  0.875 0 0  0.890625 0 0  0.90625 0 0  0.921875 0 0  0.9375 0 0  0.953125 0 0  0.96875 0 0  0.984375 0 0  1 0 0  0 0.015625 0  0.015625 0.015625 0  0.03125 0.015625 0  0.046875 0.015625 0  0.0625 0.015625 0  0.078125 0.015625 0  0.09375 0.015625 0  0.109375 0.015625 0  0.125 0.015625 0  0.140625 0.015625 0  0.15625 0.015625 0  0.171875 0.015625 0  0.1875 0.015625 0  0.203125 0.015625 0  0.21875 0.015625 0  0.234375 0.015625 0  0.25 0.015625 0  0.265625 0.015625 0  0.28125 0.015625 0  0.296875 0.015625 0  0.3125 0.015625 0  0.328125 0.015625 0  0.34375 0.015625 0  0.359375 0.015625 0  0.375 0.015625 0  0.390625 0.015625 0  0.40625 0.015625 0  0.421875 0.015625 0  0.4375 0.015625 0  0.453125 0.015625 0  0.46875 0.015625 0  0.484375 0.015625 0  0.5 0.015625 0  0.515625 0.015625 0  0.53125 0.015625 0  0.546875 0.015625 0  0.5625 0.015625 0  0.578125 0.015625 0  0.59375 0.015625 0  0.609375 0.015625 0  0.625 0.015625 0  0.640625 0.015625 0  0.65625 0.015625 0  0.671875 0.015625 0  0.6875 0.015625 0  0.703125 0.015625 0  0.71875 0.015625 0  0.734375 0.015625 0  0.75 0.015625 0  0.765625 0.015625 0  0.78125 0.015625 0  0.796875 0.015625 0  0.8125 0.015625 0  0.828125 0.015625 0  0.84375 0.015625 0  0.859375 0.015625 0  0.875 0.015625 0  0.890625 0.015625 0  0.90625 0.015625 0  0.921875 0.015625 0  0.9375 0.015625 0  0.953125 0.015625 0  0.96875 0.015625 0  0.984375 0.015625 0  1 0.015625 0  0 0.03125 0  0.015625 0.03125 0  0.03125 0.03125 0  0.046875 0.03125 0  0.0625 0.03125 0  0.078125 0.03125 0  0.09375 0.03125 0  0.109375 0.03125 0  0.125 0.03125 0  0.140625 0.03125 0  0.15625 0.03125 0  0.171875 0.03125 0  0.1875 0.03125 0  0.203125 0.03125 0  0.21875 0.03125 0  0.234375 0.03125 0  0.25 0.03125 0  0.265625 0.03125 0  0.28125 0.03125 0  0.296875 0.03125 0  0.3125 0.03125 0  0.328125 0.03125 0  0.34375 0.03125 0  0.359375 0.03125 0  0.375 0.03125 0  0.390625 0.03125 0  0.40625 0.03125 0  0.421875 0.03125 0  0.4375 0.03125 0  0.453125 0.03125 0  0.46875 0.03125 0  0.484375 0.03125 0  0.5 0.03125 0  0.515625 0.03125 0  0.53125 0.03125 0  0.546875 0.03125 0  0.5625 0.03125 0  0.578125 0.03125 0  0.59375 0.03125 0  0.609375 0.03125 0  0.625 0.03125 0  0.640625 0.03125 0  0.65625 0.03125 0  0.671875 0.03125 0  0.6875 0.03125 0  0.703125 0.03125 0  0.71875 0.03125 0  0.734375 0.03125 0  0.75 0.03125 0  0.765625 0.03125 0  0.78125 0.03125 0  0.796875 0.03125 0  0.8125 0.03125 0  0.828125 0.03125 0  0.84375 0.03125 0  0.859375 0.03125 0  0.875 0.03125 0  0.890625 0.03125 0  0.90625 0.03125 0  0.921875 0.03125 0  0.9375 0.03125 0  0.953125 0.03125 0  0.96875 0.03125 0  0.984375 0.03125 0  1 0.03125 0  0 0.046875 0  0.015625 0.046875 0  0.03125 0.046875 0  0.046875 0.046875 0  0.0625 0.046875 0  0.078125 0.046875 0  0.09375 0.046875 0  0.109375 0.046875 0  0.125 0.046875 0  0.140625 0.046875 0  0.15625 0.046875 0  0.171875 0.046875 0  0.1875 0.046875 0  0.203125 0.046875 0  0.21875 0.046875 0  0.234375 0.046875 0  0.25 0.046875 0  0.265625 0.046875 0  0.28125 0.046875 0  0.296875 0.046875 0  0.3125 0.046875 0  0.328125 0.046875 0  0.34375 0.046875 0  0.359375 0.046875 0  0.375 0.046875 0  0.390625 0.046875 0  0.40625 0.046875 0  0.421875 0.046875 0  0.4375 0.046875 0  0.453125 0.046875 0  0.46875 0.046875 0  0.484375 0.046875 0  0.5 0.046875 0  0.515625 0.046875 0  0.53125 0.046875 0  0.546875 0.046875 0  0.5625 0.046875 0  0.578125 0.046875 0  0.59375 0.046875 0  0.609375 0.046875 0  0.625 0.046875 0  0.640625 0.046875 0  0.65625 0.046875 0  0.671875 0.046875 0  0.6875 0.046875 0  0.703125 0.046875 0  0.71875 0.046875 0  0.734375 0.046875 0  0.75 0.046875 0  0.765625 0.046875 0  0.78125 0.046875 0  0.796875 0.046875 0  0.8125 0.046875 0  0.828125 0.046875 0  0.84375 0.046875 0  0.859375 0.046875 0  0.875 0.046875 0  0.890625 0.046875 0  0.90625 0.046875 0  0.921875 0.046875 0  0.9375 0.046875 0  0.953125 0.046875 0  0.96875 0.046875 0  0.984375 0.046875 0  1 0.046875 0  0 0.0625 0  0.015625 0.0625 0  0.03125 0.0625 0  0.046875 0.0625 0  0.0625 0.0625 0  0.078125 0.0625 0  0.09375 0.0625 0  0.109375 0.0625 0  0.125 0.0625 0  0.140625 0.0625 0  0.15625 0.0625 0  0.171875 0.0625 0  0.1875 0.0625 0  0.203125 0.0625 0  0.21875 0.0625 0  0.234375 0.0625 0  0.25 0.0625 0  0.265625 0.0625 0  0.28125 0.0625 0  0.296875 0.0625 0  0.3125 0.0625 0  0.328125 0.0625 0  0.34375 0.0625 0  0.359375 0.0625 0  0.375 0.0625 0  0.390625 0.0625 0  0.40625 0.0625 0  0.421875 0.0625 0  0.4375 0.0625 0  0.453125 0.0625 0  0.46875 0.0625 0  0.484375 0.0625 0  0.5 0.0625 0  0.515625 0.0625 0  0.53125 0.0625 0  0.546875 0.0625 0  0.5625 0.0625 0  0.578125 0.0625 0  0.59375 0.0625 0  0.609375 0.0625 0  0.625 0.0625 0  0.640625 0.0625 0  0.65625 0.0625 0  0.671875 0.0625 0  0.6875 0.0625 0  0.703125 0.0625 0  0.71875 0.0625 0  0.734375 0.0625 0  0.75 0.0625 0  0.765625 0.0625 0  0.78125 0.0625 0  0.796875 0.0625 0  0.8125 0.0625 0  0.828125 0.0625 0  0.84375 0.0625 0  0.859375 0.0625 0  0.875 0.0625 0  0.890625 0.0625 0  0.90625 0.0625 0  0.921875 0.0625 0  0.9375 0.0625 0  0.953125 0.0625 0  0.96875 0.0625 0  0.984375 0.0625 0  1 0.0625 0  0 0.078125 0  0.015625 0.078125 0  0.03125 0.078125 0  0.046875 0.078125 0  0.0625 0.078125 0  0.078125 0.078125 0  0.09375 0.078125 0  0.109375 0.078125 0  0.125 0.078125 0  0.140625 0.078125 0  0.15625 0.078125 0  0.171875 0.078125 0  0.1875 0.078125 0  0.203125 0.078125 0  0.21875 0.078125 0  0.234375 0.078125 0  0.25 0.078125 0  0.265625 0.078125 0  0.28125 0.078125 0  0.296875 0.078125 0  0.3125 0.078125 0  0.328125 0.078125 0  0.34375 0.078125 0  0.359375 0.078125 0  0.375 0.078125 0  0.390625 0.078125 0  0.40625 0.078125 0  0.421875 0.078125 0  0.4375 0.078125 0  0.453125 0.078125 0  0.46875 0.078125 0  0.484375 0.078125 0  0.5 0.078125 0  0.515625 0.078125 0  0.53125 0.078125 0  0.546875 0.078125 0  0.5625 0.078125 0  0.578125 0.078125 0  0.59375 0.078125 0  0.609375 0.078125 0  0.625 0.078125 0  0.640625 0.078125 0  0.65625 0.078125 0  0.671875 0.078125 0  0.6875 0.078125 0  0.703125 0.078125 0  0.71875 0.078125 0  0.734375 0.078125 0  0.75 0.078125 0  0.765625 0.078125 0  0.78125 0.078125 0  0.796875 0.078125 0  0.8125 0.078125 0  0.828125 0.078125 0  0.84375 0.078125 0  0.859375 0.078125 0  0.875 0.078125 0  0.890625 0.078125 0  0.90625 0.078125 0  0.921875 0.078125 0  0.9375 0.078125 0  0.953125 0.078125 0  0.96875 0.078125 0  0.984375 0.078125 0  1 0.078125 0  0 0.09375 0  0.015625 0.09375 0  0.03125 0.09375 0  0.046875 0.09375 0  0.0625 0.09375 0  0.078125 0.09375 0  0.09375 0.09375 0  0.109375 0.09375 0  0.125 0.09375 0  0.140625 0.09375 0  0.15625 0.09375 0  0.171875 0.09375 0  0.1875 0.09375 0  0.203125 0.09375 0  0.21875 0.09375 0  0.234375 0.09375 0  0.25 0.09375 0  0.265625 0.09375 0  0.28125 0.09375 0  0.296875 0.09375 0  0.3125 0.09375 0  0.328125 0.09375 0  0.34375 0.09375 0  0.359375 0.09375 0  0.375 0.09375 0  0.390625 0.09375 0  0.40625 0.09375 0  0.421875 0.09375 0  0.4375 0.09375 0  0.453125 0.09375 0  0.46875 0.09375 0  0.484375 0.09375 0  0.5 0.09375 0  0.515625 0.09375 0  0.53125 0.09375 0  0.546875 0.09375 0  0.5625 0.09375 0  0.578125 0.09375 0  0.59375 0.09375 0  0.609375 0.09375 0  0.625 0.09375 0  0.640625 0.09375 0  0.65625 0.09375 0  0.671875 0.09375 0  0.6875 0.09375 0  0.703125 0.09375 0  0.71875 0.09375 0  0.734375 0.09375 0  0.75 0.09375 0  0.765625 0.09375 0  0.78125 0.09375 0  0.796875 0.09375 0  0.8125 0.09375 0  0.828125 0.09375 0  0.84375 0.09375 0  0.859375 0.09375 0  0.875 0.09375 0  0.890625 0.09375 0  0.90625 0.09375 0  0.921875 0.09375 0  0.9375 0.09375 0  0.953125 0.09375 0  0.96875 0.09375 0  0.984375 0.09375 0  1 0.09375 0  0 0.109375 0  0.015625 0.109375 0  0.03125 0.109375 0  0.046875 0.109375 0  0.0625 0.109375 0  0.078125 0.109375 0  0.09375 0.109375 0  0.109375 0.109375 0  0.125 0.109375 0  0.140625 0.109375 0  0.15625 0.109375 0  0.171875 0.109375 0  0.1875 0.109375 0  0.203125 0.109375 0  0.21875 0.109375 0  0.234375 0.109375 0  0.25 0.109375 0  0.265625 0.109375 0  0.28125 0.109375 0  0.296875 0.109375 0  0.3125 0.109375 0  0.328125 0.109375 0  0.34375 0.109375 0  0.359375 0.109375 0  0.375 0.109375 0  0.390625 0.109375 0  0.40625 0.109375 0  0.421875 0.109375 0  0.4375 0.109375 0  0.453125 0.109375 0  0.46875 0.109375 0  0.484375 0.109375 0  0.5 0.109375 0  0.515625 0.109375 0  0.53125 0.109375 0  0.546875 0.109375 0  0.5625 0.109375 0  0.578125 0.109375 0  0.59375 0.109375 0  0.609375 0.109375 0  0.625 0.109375 0  0.640625 0.109375 0  0.65625 0.109375 0  0.671875 0.109375 0  0.6875 0.109375 0  0.703125 0.109375 0  0.71875 0.109375 0  0.734375 0.109375 0  0.75 0.109375 0  0.765625 0.109375 0  0.78125 0.109375 0  0.796875 0.109375 0  0.8125 0.109375 0  0.828125 0.109375 0  0.84375 0.109375 0  0.859375 0.109375 0  0.875 0.109375 0  0.890625 0.109375 0  0.90625 0.109375 0  0.921875 0.109375 0  0.9375 0.109375 0  0.953125 0.109375 0  0.96875 0.109375 0  0.984375 0.109375 0  1 0.109375 0  0 0.125 0  0.015625 0.125 0  0.03125 0.125 0  0.046875 0.125 0  0.0625 0.125 0  0.078125 0.125 0  0.09375 0.125 0  0.109375 0.125 0  0.125 0.12
[...]
<PointData  Scalars="f_10-0"> 
<DataArray  type="Float64"  Name="f_10-0"  format="ascii">-3.9609602283240453e-01  -3.9722736232517913e-01  -3.9965104234325644e-01  -4.0269505601072980e-01  -4.0601700903930249e-01  -4.0936430182013500e-01  -4.1253489089625750e-01  -4.1535867518504338e-01  -4.1768839959147558e-01  -4.1939455569565465e-01  -4.2036233863748557e-01  -4.2048974790443733e-01  -4.1968636603769227e-01  -4.1787255521528266e-01  -4.1497891698735340e-01  -4.1094591812363312e-01  -4.0572361904068283e-01  -3.9927146173940897e-01  -3.9155808726015845e-01  -3.8256116138859525e-01  -3.7226719342320458e-01  -3.6067133723463290e-01  -3.4777716719879825e-01  -3.3359642422682195e-01  -3.1814872926032361e-01  -3.0146126337608403e-01  -2.8356841511793229e-01  -2.6451139687807312e-01  -2.4433783309555979e-01  -2.2310132372652625e-01  -2.0086098686789938e-01  -1.7768098458768003e-01  -1.5363003594470753e-01  -1.2878092089600185e-01  -1.0320997833024527e-01  -7.6996600882659333e-02  -5.0222728537542706e-02  -2.2972342370035266e-02  4.6690408256301512e-03  3.2614872781217552e-02  6.0778077009476413e-02  8.9071551435152163e-02  1.1740867085100042e-01  1.4570378960070945e-01  1.7387274474456088e-01  2.0183335976071787e-01  2.2950594862582932e-01  2.5681381996026531e-01  2.8368378087944024e-01  3.1004664033632778e-01  3.3583771216124259e-01  3.6099731882414410e-01  3.8547129834049826e-01  4.0921151899814906e-01  4.3217641017969344e-01  4.5433152334606075e-01  4.7565014682702733e-01  4.9611401457938520e-01  5.1571417916416507e-01  5.3445217788156740e-01  5.5234174791407409e-01  5.6941163844128362e-01  5.8571108340893763e-01  6.0132108385237992e-01  6.1642254465827351e-01  -3.9480319318441764e-01  -3.9532840499937760e-01  -3.9677146070866159e-01  -3.9877601827636061e-01  -4.0104190128150435e-01  -4.0334025317411049e-01  -4.0548342134896320e-01  -4.0731204942618421e-01  -4.0868768539196199e-01  -4.0948842837341226e-01  -4.0960622722747825e-01  -4.0894514851297992e-01  -4.0742023804346023e-01  -4.0495675713728629e-01  -4.0148965905228917e-01  -3.9696321920891320e-01  -3.9133076159690511e-01  -3.8455444175647974e-01  -3.7660505844230824e-01  -3.6746187402061836e-01  -3.5711242925690601e-01  -3.4555234227907894e-01  -3.3278508466628687e-01  -3.1882173013374943e-01  -3.0368067334984872e-01  -2.8738731814465596e-01  -2.6997373580772877e-01  -2.5147829535266292e-01  -2.3194526855186884e-01  -2.1142441321343283e-01  -1.8997053857823634e-01  -1.6764305686149325e-01  -1.4450552486156362e-01  -1.2062517923715819e-01  -9.6072468552975118e-02  -7.0920584566454392e-02  -4.5244994535596425e-02  -1.9122975632702540e-02  7.3668480895488072e-03  3.4144966265951968e-02  6.1131440799126212e-02  8.8246363165620331e-02  1.1541031123897048e-01  1.4254480636005953e-01  1.6957277121795267e-01  1.9641898887454570e-01  2.2301056302554370e-01  2.4927737939579669e-01  2.7515256808135613e-01  3.0057296674355899e-01  3.2547958491534706e-01  3.4981807040608320e-01  3.7353918004553033e-01  3.9659925903537635e-01  4.1896073638258169e-01  4.4059264897471184e-01  4.6147121509344446e-01  4.8158049195600250e-01  5.0091317601470864e-01  5.1947164951534430e-01  5.3726946409253595e-01  5.5433365231820209e-01  5.7070856777802159e-01  5.8646456860051566e-01  6.0169382031015761e-01  -3.9188204399727022e-01  -3.9219163888489889e-01  -3.9305180949239482e-01  -3.9429768711112556e-01  -3.9572951399908241e-01  -3.9716270459858966e-01  -3.9843561619069423e-01  -3.9940621329020837e-01  -3.9994882731862536e-01  -3.9995166808394250e-01  -3.9931505891261670e-01  -3.9795020564333744e-01  -3.9577833975886850e-01  -3.9273011838582639e-01  -3.8874519815376152e-01  -3.8377192417610012e-01  -3.7776709214525006e-01  -3.7069575309362673e-01  -3.6253103849469237e-01  -3.5325398923200568e-01  -3.4285337631886531e-01  -3.3132550460850674e-01  -3.1867399342054209e-01  -3.0490953023084455e-01  -2.9004959545621334e-01  -2.7411815798262246e-01  -2.5714534246831439e-01  -2.3916707060580070e-01  -2.2022467943963564e-01  -2.0036452049296025e-01  -1.7963754384066966e-01  -1.5809887137519571e-01  -1.3580736335146260e-01  -1.1282518189725760e-01  -8.9217354578520841e-02  -6.5051340375470362e-02  -4.0396599624517443e-02  -1.5324168685091165e-02  1.0093760632374169e-02  3.5784257434729308e-02  6.1674064893694015e-02  8.7690011394642539e-02  1.1375942096321684e-01  1.3981052413868186e-01  1.6577287023027390e-01  1.9157774158381219e-01  2.1715857015588622e-01  2.4245135640037793e-01  2.6739509027647995e-01  2.9193217414975042e-01  3.1600884754385872e-01  3.3957561418796628e-01  3.6258767269383507e-01  3.8500535363016292e-01  4.0679456795102353e-01  4.2792727500143624e-01  4.4838198314448485e-01  4.6814430308959748e-01  4.8720758393145180e-01  5.0557367421063748e-01  5.2325385913197042e-01  5.4026997954980760e-01  5.5665554445381438e-01  5.7245365782520152e-01  5.8770291274387887e-01  -3.8797147211209343e-01  -3.8814446634333793e-01  -3.8862759401566899e-01  -3.8932453937495493e-01  -3.9010599351800135e-01  -3.9083434844031512e-01  -3.9137792262725757e-01  -3.9161535042766649e-01  -3.9143616742794712e-01  -3.9074039001799693e-01  -3.8943789398228784e-01  -3.8744784359164952e-01  -3.8469822949618615e-01  -3.8112551203057710e-01  -3.7667434878962852e-01  -3.7129738273523571e-01  -3.6495506934535615e-01  -3.5761552476620073e-01  -3.4925438034785322e-01  -3.3985463198397242e-01  -3.2940647530492478e-01  -3.1790712005421912e-01  -3.0536057898879337e-01  -2.9177742844801124e-01  -2.7717453937351089e-01  -2.6157477904666876e-01  -2.4500668513458904e-01  -2.2750411477431934e-01  -2.0910587234314759e-01  -1.8985532022260027e-01  -1.6979997723327395e-01  -1.4899110947896349e-01  -1.2748331809403454e-01  -1.0533412786400517e-01  -8.2603579936472021e-02  -5.9353830929173082e-02  -3.5648759759236440e-02  -1.1553582552122653e-02  1.2865524875662239e-02  3.7541798160483461e-02  6.2408250840443907e-02  8.7398038028349070e-02  1.1244481923751992e-01  1.3748312209673752e-01  1.6244870834316175e-01  1.8727894303792886e-01  2.1191316747110955e-01  2.3629307577245054e-01  2.6036309487836873e-01  2.8407076727336272e-01  3.0736713586713166e-01  3.3020713052190526e-01  3.5254995613459378e-01  3.7435948281870635e-01  3.9560463960082731e-01  4.1625981403223533e-01  4.3630526085139398e-01  4.5572752226674068e-01  4.7451985762092008e-01  4.9268266296992264e-01  5.1022380661703470e-01  5.2715864999997541e-01  5.4350895822928236e-01  5.5929898755428020e-01  5.7454856915763153e-01  -3.8336920331221153e-01  -3.8344782645251729e-01  -3.8366147625482094e-01  -3.8394864198892531e-01  -3.8422093240215383e-01  -3.8437691402098539e-01  -3.8431252397613058e-01  -3.8392704391771282e-01  -3.8312582257824856e-01  -3.8182135780261589e-01  -3.7993365823650471e-01  -3.7739030407859248e-01  -3.7412639363919897e-01  -3.7008445465807310e-01  -3.6521435041953260e-01  -3.5947318867961769e-01  -3.5282523182518266e-01  -3.4524180288374062e-01  -3.3670118092325069e-01  -3.2718847958708397e-01  -3.1669550332875912e-01  -3.0522057702992061e-01  -2.9276834595621359e-01  -2.7934954435454296e-01  -2.6498073237321829e-01  -2.4968400234812410e-01  -2.3348665679068545e-01  -2.1642086157491114e-01  -1.9852327878302517e-01  -1.7983468436478228e-01  -1.6039957613758604e-01  -1.4026577766622639e-01  -1.1948404320448701e-01  -9.8107668182005794e-02  -7.6192108739028638e-02  -5.3794612639107099e-02  -3.0973862635309993e-02  -7.7896321459540339e-03  1.5697547979537110e-02  3.9426713666607729e-02  6.3336785406891208e-02  8.7366882485994932e-02  1.1145663643459999e-01  1.3554650616548294e-01  1.5957809673819087e-01  1.8349448305025096e-01  2.0724053906508955e-01  2.3076327252133297e-01  2.5401216448161212e-01  2.7693951260947991e-01  2.9950077672767622e-01  3.2165492500135684e-01  3.4336477896236384e-01  3.6459735544381972e-01  3.8532420311862714e-01  4.0552173030165328e-01  4.2517151808962278e-01  4.4426060687194219e-01  4.6278173062901934e-01  4.8073344315380495e-01  4.9812001465416761e-01  5.1495083547386988e-01  5.3123886810732379e-01  5.4699780909236184e-01  5.6223824704957437e-01  -3.7827591989399145e-01  -3.7828449133771969e-01  -3.7829532212769701e-01  -3.7826626218004999e-01  -3.7813434983017769e-01  -3.7782374367511617e-01  -3.7725283154652733e-01  -3.7633937106898852e-01  -3.7500369572694658e-01  -3.7317053848999165e-01  -3.7077003058558544e-01  -3.6773824258810839e-01  -3.6401747676477392e-01  -3.5955642376547131e-01  -3.5431024269840994e-01  -3.4824059406846986e-01  -3.4131563908539081e-01  -3.3351001034590921e-01  -3.2480475451244228e-01  -3.1518724554353278e-01  -3.0465106630222261e-01  -2.9319585644817003e-01  -2.8082712511417862e-01  -2.6755602780513749e-01  -2.5339910812035743e-01  -2.3837800619179980e-01  -2.2251913705431461e-01  -2.0585334341656605e-01  -1.8841552837426792e-01  -1.7024427439445050e-01  -1.5138145530898703e-01  -1.3187184802396945e-01  -1.1176275015571416e-01  -9.1103608869618741e-02  -6.9945664899890195e-02  -4.8341614184522513e-02  -2.6345287908303854e-02  -4.0113501649043301e-03  1.8604988925419848e-02  4.1448247855294579e-02  6.4462939988978882e-02  8.7593835526569991e-02  1.1078622308153048e-01  1.3398617426135020e-01  1.5714081387265724e-01  1.8019859745398362e-01  2.0310959686960003e-01  2.2582579375932965e-01  2.4830137979144395e-01  2.7049306193867007e-01  2.9236037038730950e-01  3.1386596615297141e-01  3.3497594491770899e-01  3.5566013284800940e-01  3.7589236889416616e-01  3.9565076576480879e-01  4.1491793743696209e-01  4.3368117293736791e-01  4.5193252110550286e-01  4.6966872419042804e-01  4.8689089359564852e-01  5.0360376742136159e-01  5.1981439137404506e-01  5.3553021193111150e-01  5.5075690555824475e-01  -3.7283734806398922e-01  -3.7279175298663586e-01  -3.7264441539153859e-01  -3.7236504422057987e-01  -3.7190724903488009e-01  -3.7121334496652669e-01  -3.7021913754258445e-01  -3.6885790725539475e-01  -3.6706334029864285e-01  -3.6477151911556893e-01  -3.6192221901091809e-01  -3.5845974200795022e-01  -3.5433345499963209e-01  -3.4949814013055780e-01  -3.4391422340197403e-01  -3.3754792033191117e-01  -3.3037132063245467e-01  -3.2236242362336298e-01  -3.1350513001516805e-01  -3.0378919221704598e-01  -2.9321012351717030e-01  -2.8176906578591349e-01  -2.6947261542814649e-01  -2.5633260794662621e-01  -2.4236586252100459e-01  -2.2759388932400018e-01  -2.1204256375314870e-01  -1.9574177320678884e-01  -1.7872504331943725e-01  -1.6102915153752456e-01  -1.4269373642216229e-01  -1.2376091100956481e-01  -1.0427488789700785e-01  -8.4281622477065735e-02  -6.3828479011730249e-02  -4.2963922180412902e-02  -2.1737234554565350e-02  -1.9825836499751383e-04  2.1602841860888816e-02  4.3615800545379189e-02  6.5790461718199467e-02  8.8076984805299338e-02  1.1042605091787772e-01  1.3278907421382691e-01  1.5511842178947186e-01  1.7736764426888435e-01  1.9949171792284368e-01  2.2144729787553044e-01  2.4319298081346494e-01  2.6468957462461012e-01  2.8590037154704817e-01  3.0679142062833520e-01  3.2733179446359129e-01  3.4749384409183148e-01  3.6725343427367640e-01  3.8659014866533642e-01  4.0548744990332863e-01  4.2393277225004550e-01  4.4191751292224130e-01  4.5943687183795090e-01  4.7648947170605360e-01  4.9307668647975544e-01  5.0920164416965485e-01  5.2486797452570977e-01  5.4007852179033367e-01  -3.6716503002494183e-01  -3.6707633986343569e-01  -3.6680249097929141e-01  -3.6632095324464009e-01  -3.6559664482060722e-01  -3.6458498325686856e-01  -3.6323515407667417e-01  -3.6149309879759367e-01  -3.5930396374357443e-01  -3.5661396375198251e-01  -3.5337173825595969e-01  -3.4952931653697311e-01  -3.4504280032410645e-01  -3.3987284684576136e-01  -3.3398501042838036e-01  -3.2734998099786772e-01  -3.1994374369568795e-01  -3.1174767418108906e-01  -3.0274857783993825e-01  -2.9293867709672566e-01  -2.8231554865540553e-01  -2.7088201133243317e-01  -2.5864596490341157e-01  -2.4562018086729473e-01  -2.3182204708552209e-01  -2.1727326973003183e-01  -2.0199953770857165e-01  -1.8603015653544397e-01  -1.6939766026433078e-01  -1.5213741137310255e-01  -1.3428719918306858e-01  -1.1588684735095264e-01  -9.6977840113694661e-02  -7.7602975315727935e-02  -5.7806049932180109e-02  -3.7631581038745719e-02  -1.7124562252975248e-02  3.6697471113616431e-03  2.4706005291328131e-02  4.5938950545900956e-02  6.7323550604274571e-02  8.8815146971165632e-02  1.1036960136175475e-01  1.3194345034353119e-01  1.5349407266861126e-01  1.7497987198884304e-01  1.9636047583882679e-01  2.1759695008904953e-01  2.3865202659850906e-01  2.5949034056052500e-01  2.8007867300656464e-01  3.0038619302636260e-01  3.2038469334107794e-01  3.4004881173578788e-01  3.5935622925817723e-01  3.7828783368651903e-01  3.9682783316600528e-01  4.1496379975868442e-01  4.3268661601189784e-01  4.4999029098303822e-01  4.6687161013757567e-01  4.8332959508714501e-01  4.9936478450231708e-01  5.1497840822805396e-01  5.3017159486240095e-01  -3.6134715304652543e-01  -3.6122344358988950e-01  -3.6084641862843009e-01  -3.6019889374681563e-01  -3.5925380304047072e-01  -3.5797622109208665e-01  -3.5632564577139764e-01  -3.5425822868931467e-01  -3.5172874860808012e-01  -3.4869224052886688e-01  -3.4510528011315528e-01  -3.4092696892763896e-01  -3.3611967958753408e-01  -3.3064961557566686e-01  -3.2448722947275144e-01  -3.1760753160455069e-01  -3.0999031109232644e-01  -3.0162028353676362e-01  -2.9248717390505113e-01  -2.8258573927194830e-01  -2.7191573355706622e-01  -2.6048181505129436e-01  -2.4829339715895082e-01  -2.3536444326764250e-01  -2.2171320787373405e-01  -2.0736192789413652e-01  -1.9233647029580833e-01  -1.7666594452881607e-01  -1.6038229046525485e-01  -1.4351985431010875e-01  -1.2611496596308122e-01  -1.0820553133810101e-01  -8.9830652064168515e-02  -7.1030282813571335e-02  -5.1844933399632129e-02  -3.2315419060604422e-02  -1.2482658398013191e-02  7.6124853003446975e-03  2.7929326750278559e-02  4.8427454981866902e-02  6.9066813999321588e-02  8.9807778526769827e-02  1.1061123458914782e-01  1.3143867291541086e-01  1.5225230089425529e-01  1.7301517634831276e-01  1.9369136397454978e-01  2.1424611311495201e-01  2.3464605368168015e-01  2.5485940559343861e-01  2.7485619594178939e-01  2.9460847719640954e-01  3.1409053893157202e-01  3.3327910463587179e-01  3.5215350395939526e-01  3.7069580907162397e-01  3.8889092153570337e-01  4.0672659335995159e-01  4.2419336331538782e-01  4.4128438890950888e-01  4.5799515873341179e-01  4.7432308332573070e-01  4.9026698773716926e-01  5.0582656262768466e-01  5.2100186180540631e-01  -3.5545508671848980e-01  -3.5530243726382460e-01  -3.5483992602302766e-01  -3.5405419820683204e-01  -3.5292404904466529e-01  -3.5142181516512877e-01  -3.4951500827247184e-01  -3.4716799238194096e-01  -3.4434355495963281e-01  -3.4100428581553649e-01  -3.3711373343538131e-01  -3.3263734588259553e-01  -3.2754322218993348e-01  -3.2180270543961831e-01  -3.1539084643000248e-01  -3.0828676134692690e-01  -3.0047390073987668e-01  -2.9194024154068099e-01  -2.8267840929862975e-01  -2.7268573434016979e-01  -2.6196424317339251e-01  -2.5052058510643327e-01  -2.3836589370229661e-01  -2.2551558331737148e-01  -2.1198908250573253e-01  -1.9780950839461056e-01  -1.8300328904006705e-01  -1.6759974395074895e-01  -1.5163063603097035e-01  -1.3512971070289950e-01  -1.1813223949190056e-01  -1.0067458555095625e-01  -8.2793807262236715e-02  -6.4527313191035024e-02  -4.5912577505146546e-02  -2.6986919936486057e-02  -7.7873490153947296e-03  1.1649537734011875e-02  3.1287607121493165e-02  5.1091210499960439e-02  7.1025185561391813e-02  9.1054854230772572e-02  1.1114602962315610e-01  1.3126504246405024e-01  1.5137879419974618e-01  1.7145484065426297e-01  1.9146150687661481e-01  2.1136803101999999e-01  2.3114473284121390e-01  2.5076320073092179e-01  2.7019649001889090e-01  2.8941932451443919e-01  3.0840829267782660e-01  3.2714202930277952e-01  3.4560137297583093e-01  3.6376948877888177e-01  3.8163194476011147e-01  3.9917672990005082e-01  4.1639420133492305e-01  4.3327695070414995e-01  4.4981958534409600e-01  4.6601843112217134e-01  4.8187117992851991e-01  4.9737652318541642e-01  5.1253382694334337e-01  -3.4954764276889205e-01  -3.4937073502785820e-01  -3.4883642617942728e-01  -3.4793418952193028e-01  -3.4664721366870244e-01  -3.4495339253993795e-01  -3.4282652332639563e-01  -3.4023758415262123e-01  -3.3715598493452026e-01  -3.3355071901855010e-01  -3.2939137761014153e-01  -3.2464901604266377e-01  -3.1929687805497337e-01  -3.1331099253343325e-01  -3.0667065925268150e-01  -2.9935883862169399e-01  -2.9136245723416393e-01  -2.8267263733350179e-01  -2.7328485480137754e-01  -2.6319902732419354e-01  -2.5241953219458746e-01  -2.4095515191537464e-01  -2.2881894551432527e-01  -2.1602804433857431e-01  -2.0260337310054041e-01  -1.8856930001014049e-01  -1.7395322372636424e-01  -1.5878510921330122e-01  -1.4309698886818581e-01  -1.2692244888951054e-01  -1.1029612315604929e-01  -9.3253217380095094e-02  -7.5829084676140357e-02  -5.8058869933210820e-02  -3.9977234798296270e-02  -2.1618168263933375e-02  -3.0148806027329245e-03  1.5800228423192605e-02  3.4795541730150911e-02  5.3940155858749332e-02  7.3203790706792407e-02  9.2556697536011395e-02  1.1196958238076483e-01  1.3141355829072818e-01  1.5086013540337107e-01  1.7028125325365046e-01  1.8964935547871584e-01  2.0893750350382656e-01  2.2811952307220493e-01  2.4717017562109295e-01  2.6606534540443150e-01  2.8478223274130016e-01  3.0329954362326461e-01  3.2159766595232053e-01  3.3965882276549708e-01  3.5746719288418072e-01  3.7500898959467532e-01  3.9227248850345653e-01  4.0924799713729204e-01  4.2592776191053722e-01  4.4230581351294512e-01  4.5837775990973134e-01  4.7414054628695423e-01  4.8959221125251501e-01  5.0473167502979621e-01  -3.4367401451895391e-01  -3.4347651510149629e-01  -3.4288116559279397e-01  -3.4187957682980497e-01  -3.4045829513914316e-01  -3.3859952814696725e-01  -3.3628204420159641e-01  -3.3348216099527545e-01  -3.3017474809451314e-01  -3.2633418628778388e-01  -3.2193524746698898e-01  -3.1695387718933615e-01  -3.1136787555954193e-01  -3.0515748021753114e-01  -2.9830585888766492e-01  -2.9079951945555044e-01  -2.8262864411482425e-01  -2.7378735171046686e-01  -2.6427388965892679e-01  -2.5409075421651400e-01  -2.4324473575890684e-01  -2.3174688444123420e-01  -2.1961239141423497e-01  -2.0686038191064393e-01  -1.9351361912145526e-01  -1.7959812182875493e-01  -1.6514270401136816e-01  -1.5017845061182888e-01  -1.3473814964558417e-01  -1.1885570599331231e-01  -1.0256556566591672e-01  -8.5902180320334226e-02  -6.8899539871320123e-02  -5.1590796136791475e-02  -3.4007992978813191e-02  -1.6181909187484536e-02  1.8579894741531558e-03  2.0083501857407475e-02  3.8467566907744652e-02  5.6984088188740949e-02  7.5607734505951291e-02  9.4313742649802107e-02  1.1307774475145342e-01  1.3187563746858283e-01  1.5068350405228670e-01  1.6947759412414209e-01  1.8823436039110680e-01  2.0693054699405905e-01  2.2554332092576612e-01  2.4405043595054968e-01  2.6243041753662605e-01  2.8066275721066120e-01  2.9872810517978049e-01  3.1660845079214273e-01  3.3428728125386009e-01  3.5174970992627752e-01  3.6898256656221418e-01  3.8597444321253838e-01  4.0271569158047099e-01  4.1919837070743465e-01  4.3541614831741876e-01  4.5136416484323133e-01  4.6703887541356026e-01  4.8243789050833885e-01  4.9755983878015148e-01  -3.3787589063890200e-01  -3.3766070821313721e-01  -3.3701287193354312e-01  -3.3592563631398337e-01  -3.3438815130331317e-01  -3.3238600904406135e-01  -3.2990193457087763e-01  -3.2691656383908990e-01  -3.2340925577369883e-01  -3.1935889465909295e-01  -3.1474465164542220e-01  -3.0954668633050259e-01  -3.0374677928015636e-01  -2.9732889315093347e-01  -2.9027966383593590e-01  -2.8258882429835891e-01  -2.7424956316434523e-01  -2.6525881835870246e-01  -2.5561750363967356e-01  -2.4533066331183534e-01  -2.3440754813306261e-01  -2.2286160394671553e-01  -2.1071036432236856e-01  -1.9797523988550239e-01  -1.8468120033846622e-01  -1.7085635047912315e-01  -1.5653140855925327e-01  -1.4173910348580343e-01  -1.2651351571034097e-01  -1.1088939399223